
Host: deepmac.local

Timers On : Sun Jun 11 12:39:19 2023
Timers Off: Sun Jun 11 12:39:21 2023

Wall Time:        1.95 seconds

                                                       Time (seconds)
Module                                       User      System        Wall        Calls

--------------------------------------------------------------------------------------

**************************************************************************************
