
Host: deepmac.local

Timers On : Sat Apr  8 16:03:19 2023
Timers Off: Sat Apr  8 16:03:23 2023

Wall Time:        3.79 seconds

                                                       Time (seconds)
Module                                       User      System        Wall        Calls

--------------------------------------------------------------------------------------

**************************************************************************************

Host: deepmac.local

Timers On : Sat Apr  8 16:03:41 2023
Timers Off: Sat Apr  8 16:03:42 2023

Wall Time:        1.56 seconds

                                                       Time (seconds)
Module                                       User      System        Wall        Calls

--------------------------------------------------------------------------------------

**************************************************************************************

Host: deepmac.local

Timers On : Sat Apr  8 16:03:58 2023
Timers Off: Sat Apr  8 16:04:00 2023

Wall Time:        1.81 seconds

                                                       Time (seconds)
Module                                       User      System        Wall        Calls

--------------------------------------------------------------------------------------

**************************************************************************************

Host: deepmac.local

Timers On : Sat Apr  8 16:04:13 2023
Timers Off: Sat Apr  8 16:04:14 2023

Wall Time:        1.56 seconds

                                                       Time (seconds)
Module                                       User      System        Wall        Calls

--------------------------------------------------------------------------------------

**************************************************************************************

Host: deepmac.local

Timers On : Sat Apr  8 16:12:00 2023
Timers Off: Sat Apr  8 16:12:02 2023

Wall Time:        1.69 seconds

                                                       Time (seconds)
Module                                       User      System        Wall        Calls

--------------------------------------------------------------------------------------

**************************************************************************************

Host: deepmac.local

Timers On : Sat Apr  8 16:12:12 2023
Timers Off: Sat Apr  8 16:12:14 2023

Wall Time:        1.57 seconds

                                                       Time (seconds)
Module                                       User      System        Wall        Calls

--------------------------------------------------------------------------------------

**************************************************************************************

Host: deepmac.local

Timers On : Sat Apr  8 16:12:50 2023
Timers Off: Sat Apr  8 16:12:52 2023

Wall Time:        1.61 seconds

                                                       Time (seconds)
Module                                       User      System        Wall        Calls

--------------------------------------------------------------------------------------

**************************************************************************************

Host: deepmac.local

Timers On : Sat Apr  8 16:12:57 2023
Timers Off: Sat Apr  8 16:13:01 2023

Wall Time:        3.45 seconds

                                                       Time (seconds)
Module                                       User      System        Wall        Calls

--------------------------------------------------------------------------------------

**************************************************************************************

Host: deepmac.local

Timers On : Sat Apr  8 16:13:11 2023
Timers Off: Sat Apr  8 16:13:15 2023

Wall Time:        4.07 seconds

                                                       Time (seconds)
Module                                       User      System        Wall        Calls

--------------------------------------------------------------------------------------

**************************************************************************************

Host: deepmac.local

Timers On : Sat Apr  8 16:13:33 2023
Timers Off: Sat Apr  8 16:13:37 2023

Wall Time:        3.62 seconds

                                                       Time (seconds)
Module                                       User      System        Wall        Calls

--------------------------------------------------------------------------------------

**************************************************************************************

Host: deepmac.local

Timers On : Sat Apr  8 16:14:08 2023
Timers Off: Sat Apr  8 16:14:12 2023

Wall Time:        3.86 seconds

                                                       Time (seconds)
Module                                       User      System        Wall        Calls

--------------------------------------------------------------------------------------

**************************************************************************************

Host: deepmac.local

Timers On : Sat Apr  8 16:14:45 2023
Timers Off: Sat Apr  8 16:14:48 2023

Wall Time:        3.61 seconds

                                                       Time (seconds)
Module                                       User      System        Wall        Calls

--------------------------------------------------------------------------------------

**************************************************************************************

Host: deepmac.local

Timers On : Sat Apr  8 16:17:14 2023
Timers Off: Sat Apr  8 16:17:16 2023

Wall Time:        1.59 seconds

                                                       Time (seconds)
Module                                       User      System        Wall        Calls

--------------------------------------------------------------------------------------

**************************************************************************************

Host: deepmac.local

Timers On : Sat Apr  8 16:23:56 2023
Timers Off: Sat Apr  8 16:23:58 2023

Wall Time:        1.91 seconds

                                                       Time (seconds)
Module                                       User      System        Wall        Calls

--------------------------------------------------------------------------------------

**************************************************************************************

Host: deepmac.local

Timers On : Sat Apr  8 16:24:17 2023
Timers Off: Sat Apr  8 16:24:18 2023

Wall Time:        1.61 seconds

                                                       Time (seconds)
Module                                       User      System        Wall        Calls

--------------------------------------------------------------------------------------

**************************************************************************************

Host: deepmac.local

Timers On : Sat Apr  8 16:24:20 2023
Timers Off: Sat Apr  8 16:24:22 2023

Wall Time:        1.53 seconds

                                                       Time (seconds)
Module                                       User      System        Wall        Calls

--------------------------------------------------------------------------------------

**************************************************************************************

Host: deepmac.local

Timers On : Sat Apr  8 16:24:50 2023
Timers Off: Sat Apr  8 16:24:52 2023

Wall Time:        1.70 seconds

                                                       Time (seconds)
Module                                       User      System        Wall        Calls

--------------------------------------------------------------------------------------

**************************************************************************************

Host: deepmac.local

Timers On : Sat Apr  8 16:25:11 2023
Timers Off: Sat Apr  8 16:25:13 2023

Wall Time:        1.57 seconds

                                                       Time (seconds)
Module                                       User      System        Wall        Calls

--------------------------------------------------------------------------------------

**************************************************************************************

Host: deepmac.local

Timers On : Sat Apr  8 16:25:35 2023
Timers Off: Sat Apr  8 16:25:37 2023

Wall Time:        1.76 seconds

                                                       Time (seconds)
Module                                       User      System        Wall        Calls

--------------------------------------------------------------------------------------

**************************************************************************************

Host: deepmac.local

Timers On : Sat Apr  8 16:25:40 2023
Timers Off: Sat Apr  8 16:25:42 2023

Wall Time:        2.07 seconds

                                                       Time (seconds)
Module                                       User      System        Wall        Calls

--------------------------------------------------------------------------------------

**************************************************************************************

Host: deepmac.local

Timers On : Sat Apr  8 16:26:59 2023
Timers Off: Sat Apr  8 16:27:30 2023

Wall Time:       30.92 seconds

                                                       Time (seconds)
Module                                       User      System        Wall        Calls
DFH: sparsity prep                  :      0.167u      0.017s      0.116w      1 calls
Libint2ERI::Libint2ERI              :      0.300u      0.017s      0.203w      4 calls
JK: (A|mn)                          :      2.383u      0.017s      1.445w      1 calls
JK: (A|Q)^-1/2                      :      1.400u      0.033s      0.883w      1 calls
JK: (Q|mn)                          :      3.417u      0.000s      2.065w      1 calls
HF: Form core H                     :      0.117u      0.000s      0.073w      1 calls
HF: Form S/X                        :      0.017u      0.000s      0.014w      1 calls
HF: Guess                           :      0.117u      0.033s      0.114w      1 calls
SAD Guess                           :      0.117u      0.033s      0.111w      1 calls
HF: Form G                          :     26.883u      0.317s     16.368w     10 calls
JK: D                               :      0.000u      0.000s      0.002w     10 calls
JK: USO2AO                          :      0.017u      0.000s      0.001w     10 calls
JK: JK                              :     26.867u      0.317s     16.362w     10 calls
JK: J                               :      0.517u      0.017s      0.355w     20 calls
JK: J1                              :      0.250u      0.000s      0.174w     20 calls
JK: J2                              :      0.267u      0.017s      0.176w     20 calls
JK: K                               :     26.083u      0.100s     15.727w     20 calls
JK: K1                              :     22.383u      0.100s     13.512w     20 calls
JK: K2                              :      3.700u      0.000s      2.214w     20 calls
JK: AO2USO                          :      0.000u      0.000s      0.000w     10 calls
HF: Form F                          :      0.000u      0.000s      0.002w     10 calls
HF: Form D                          :      0.000u      0.000s      0.002w     10 calls
HF: DIIS                            :      0.400u      0.250s      3.122w      9 calls
HF: Form C                          :      0.183u      0.000s      0.123w      9 calls

--------------------------------------------------------------------------------------
DFH: sparsity prep                  :      0.167u      0.017s      0.116w      1 calls
| Libint2ERI::Libint2ERI            :      0.100u      0.017s      0.084w      1 calls
Libint2ERI::Libint2ERI              :      0.200u      0.000s      0.119w      2 calls
JK: (A|mn)                          :      2.383u      0.017s      1.445w      1 calls
JK: (A|Q)^-1/2                      :      1.400u      0.033s      0.883w      1 calls
| Libint2ERI::Libint2ERI            :      0.000u      0.000s      0.000w      1 calls
JK: (Q|mn)                          :      3.417u      0.000s      2.065w      1 calls
HF: Form core H                     :      0.117u      0.000s      0.073w      1 calls
HF: Form S/X                        :      0.017u      0.000s      0.014w      1 calls
HF: Guess                           :      0.117u      0.033s      0.114w      1 calls
| SAD Guess                         :      0.117u      0.033s      0.111w      1 calls
HF: Form G                          :     26.883u      0.317s     16.368w     10 calls
| JK: D                             :      0.000u      0.000s      0.002w     10 calls
| JK: USO2AO                        :      0.017u      0.000s      0.001w     10 calls
| JK: JK                            :     26.867u      0.317s     16.362w     10 calls
| | JK: J                           :      0.517u      0.017s      0.355w     20 calls
| | | JK: J1                        :      0.250u      0.000s      0.174w     20 calls
| | | JK: J2                        :      0.267u      0.017s      0.176w     20 calls
| | JK: K                           :     26.083u      0.100s     15.727w     20 calls
| | | JK: K1                        :     22.383u      0.100s     13.512w     20 calls
| | | JK: K2                        :      3.700u      0.000s      2.214w     20 calls
| JK: AO2USO                        :      0.000u      0.000s      0.000w     10 calls
HF: Form F                          :      0.000u      0.000s      0.002w     10 calls
HF: Form D                          :      0.000u      0.000s      0.002w     10 calls
HF: DIIS                            :      0.400u      0.250s      3.122w      9 calls
HF: Form C                          :      0.183u      0.000s      0.123w      9 calls

**************************************************************************************

Host: deepmac.local

Timers On : Sat Apr  8 16:27:47 2023
Timers Off: Sat Apr  8 16:28:16 2023

Wall Time:       28.40 seconds

                                                       Time (seconds)
Module                                       User      System        Wall        Calls
DFH: sparsity prep                  :      0.167u      0.000s      0.108w      1 calls
Libint2ERI::Libint2ERI              :      0.317u      0.000s      0.193w      4 calls
JK: (A|mn)                          :      2.583u      0.017s      1.556w      1 calls
JK: (A|Q)^-1/2                      :      1.350u      0.017s      0.832w      1 calls
JK: (Q|mn)                          :      3.433u      0.017s      2.071w      1 calls
HF: Form core H                     :      0.100u      0.000s      0.068w      1 calls
HF: Form S/X                        :      0.033u      0.000s      0.014w      1 calls
HF: Guess                           :      0.100u      0.033s      0.101w      1 calls
SAD Guess                           :      0.100u      0.033s      0.098w      1 calls
HF: Form G                          :     26.833u      0.283s     16.343w     10 calls
JK: D                               :      0.000u      0.000s      0.002w     10 calls
JK: USO2AO                          :      0.000u      0.000s      0.002w     10 calls
JK: JK                              :     26.833u      0.283s     16.337w     10 calls
JK: J                               :      0.533u      0.000s      0.351w     20 calls
JK: J1                              :      0.250u      0.000s      0.171w     20 calls
JK: J2                              :      0.283u      0.000s      0.175w     20 calls
JK: K                               :     26.067u      0.083s     15.708w     20 calls
JK: K1                              :     22.283u      0.067s     13.443w     20 calls
JK: K2                              :      3.783u      0.000s      2.263w     20 calls
JK: AO2USO                          :      0.000u      0.000s      0.000w     10 calls
HF: Form F                          :      0.000u      0.000s      0.001w     10 calls
HF: Form D                          :      0.000u      0.000s      0.002w     10 calls
HF: DIIS                            :      0.367u      0.200s      0.342w      9 calls
HF: Form C                          :      0.183u      0.017s      0.122w      9 calls

--------------------------------------------------------------------------------------
DFH: sparsity prep                  :      0.167u      0.000s      0.108w      1 calls
| Libint2ERI::Libint2ERI            :      0.117u      0.000s      0.070w      1 calls
Libint2ERI::Libint2ERI              :      0.200u      0.000s      0.123w      2 calls
JK: (A|mn)                          :      2.583u      0.017s      1.556w      1 calls
JK: (A|Q)^-1/2                      :      1.350u      0.017s      0.832w      1 calls
| Libint2ERI::Libint2ERI            :      0.000u      0.000s      0.000w      1 calls
JK: (Q|mn)                          :      3.433u      0.017s      2.071w      1 calls
HF: Form core H                     :      0.100u      0.000s      0.068w      1 calls
HF: Form S/X                        :      0.033u      0.000s      0.014w      1 calls
HF: Guess                           :      0.100u      0.033s      0.101w      1 calls
| SAD Guess                         :      0.100u      0.033s      0.098w      1 calls
HF: Form G                          :     26.833u      0.283s     16.343w     10 calls
| JK: D                             :      0.000u      0.000s      0.002w     10 calls
| JK: USO2AO                        :      0.000u      0.000s      0.002w     10 calls
| JK: JK                            :     26.833u      0.283s     16.337w     10 calls
| | JK: J                           :      0.533u      0.000s      0.351w     20 calls
| | | JK: J1                        :      0.250u      0.000s      0.171w     20 calls
| | | JK: J2                        :      0.283u      0.000s      0.175w     20 calls
| | JK: K                           :     26.067u      0.083s     15.708w     20 calls
| | | JK: K1                        :     22.283u      0.067s     13.443w     20 calls
| | | JK: K2                        :      3.783u      0.000s      2.263w     20 calls
| JK: AO2USO                        :      0.000u      0.000s      0.000w     10 calls
HF: Form F                          :      0.000u      0.000s      0.001w     10 calls
HF: Form D                          :      0.000u      0.000s      0.002w     10 calls
HF: DIIS                            :      0.367u      0.200s      0.342w      9 calls
HF: Form C                          :      0.183u      0.017s      0.122w      9 calls

**************************************************************************************

Host: deepmac.local

Timers On : Sat Apr  8 17:17:04 2023
Timers Off: Sat Apr  8 17:17:05 2023

Wall Time:        1.74 seconds

                                                       Time (seconds)
Module                                       User      System        Wall        Calls

--------------------------------------------------------------------------------------

**************************************************************************************

Host: deepmac.local

Timers On : Sat Apr  8 17:17:23 2023
Timers Off: Sat Apr  8 17:17:25 2023

Wall Time:        2.13 seconds

                                                       Time (seconds)
Module                                       User      System        Wall        Calls

--------------------------------------------------------------------------------------

**************************************************************************************

Host: deepmac.local

Timers On : Sat Apr  8 17:17:28 2023
Timers Off: Sat Apr  8 17:17:29 2023

Wall Time:        1.75 seconds

                                                       Time (seconds)
Module                                       User      System        Wall        Calls

--------------------------------------------------------------------------------------

**************************************************************************************

Host: deepmac.local

Timers On : Sat Apr  8 17:17:33 2023
Timers Off: Sat Apr  8 17:17:35 2023

Wall Time:        2.19 seconds

                                                       Time (seconds)
Module                                       User      System        Wall        Calls

--------------------------------------------------------------------------------------

**************************************************************************************

Host: deepmac.local

Timers On : Sat Apr  8 17:17:40 2023
Timers Off: Sat Apr  8 17:17:41 2023

Wall Time:        1.78 seconds

                                                       Time (seconds)
Module                                       User      System        Wall        Calls

--------------------------------------------------------------------------------------

**************************************************************************************

Host: deepmac.local

Timers On : Sat Apr  8 17:18:02 2023
Timers Off: Sat Apr  8 17:18:04 2023

Wall Time:        2.15 seconds

                                                       Time (seconds)
Module                                       User      System        Wall        Calls

--------------------------------------------------------------------------------------

**************************************************************************************

Host: deepmac.local

Timers On : Sat Apr  8 17:18:42 2023
Timers Off: Sat Apr  8 17:18:46 2023

Wall Time:        3.68 seconds

                                                       Time (seconds)
Module                                       User      System        Wall        Calls

--------------------------------------------------------------------------------------

**************************************************************************************

Host: deepmac.local

Timers On : Sat Apr  8 17:19:07 2023
Timers Off: Sat Apr  8 17:19:12 2023

Wall Time:        4.74 seconds

                                                       Time (seconds)
Module                                       User      System        Wall        Calls

--------------------------------------------------------------------------------------

**************************************************************************************

Host: deepmac.local

Timers On : Sat Apr  8 17:27:57 2023
Timers Off: Sat Apr  8 17:28:00 2023

Wall Time:        3.87 seconds

                                                       Time (seconds)
Module                                       User      System        Wall        Calls

--------------------------------------------------------------------------------------

**************************************************************************************

Host: deepmac.local

Timers On : Sat Apr  8 17:28:46 2023
Timers Off: Sat Apr  8 17:28:51 2023

Wall Time:        4.33 seconds

                                                       Time (seconds)
Module                                       User      System        Wall        Calls

--------------------------------------------------------------------------------------

**************************************************************************************

Host: deepmac.local

Timers On : Sat Apr  8 17:31:05 2023
Timers Off: Sat Apr  8 17:31:10 2023

Wall Time:        4.61 seconds

                                                       Time (seconds)
Module                                       User      System        Wall        Calls

--------------------------------------------------------------------------------------

**************************************************************************************

Host: deepmac.local

Timers On : Sat Apr  8 17:32:43 2023
Timers Off: Sat Apr  8 17:32:47 2023

Wall Time:        4.74 seconds

                                                       Time (seconds)
Module                                       User      System        Wall        Calls

--------------------------------------------------------------------------------------

**************************************************************************************

Host: deepmac.local

Timers On : Sat Apr  8 17:33:14 2023
Timers Off: Sat Apr  8 17:33:19 2023

Wall Time:        4.47 seconds

                                                       Time (seconds)
Module                                       User      System        Wall        Calls

--------------------------------------------------------------------------------------

**************************************************************************************

Host: deepmac.local

Timers On : Sat Apr  8 17:34:02 2023
Timers Off: Sat Apr  8 17:34:05 2023

Wall Time:        3.60 seconds

                                                       Time (seconds)
Module                                       User      System        Wall        Calls

--------------------------------------------------------------------------------------

**************************************************************************************

Host: deepmac.local

Timers On : Sat Apr  8 17:34:34 2023
Timers Off: Sat Apr  8 17:34:39 2023

Wall Time:        4.16 seconds

                                                       Time (seconds)
Module                                       User      System        Wall        Calls

--------------------------------------------------------------------------------------

**************************************************************************************

Host: deepmac.local

Timers On : Sat Apr  8 17:34:41 2023
Timers Off: Sat Apr  8 17:34:44 2023

Wall Time:        3.72 seconds

                                                       Time (seconds)
Module                                       User      System        Wall        Calls

--------------------------------------------------------------------------------------

**************************************************************************************

Host: deepmac.local

Timers On : Sat Apr  8 17:34:54 2023
Timers Off: Sat Apr  8 17:34:58 2023

Wall Time:        3.67 seconds

                                                       Time (seconds)
Module                                       User      System        Wall        Calls

--------------------------------------------------------------------------------------

**************************************************************************************

Host: deepmac.local

Timers On : Sat Apr  8 17:35:22 2023
Timers Off: Sat Apr  8 17:35:27 2023

Wall Time:        4.85 seconds

                                                       Time (seconds)
Module                                       User      System        Wall        Calls

--------------------------------------------------------------------------------------

**************************************************************************************

Host: deepmac.local

Timers On : Sat Apr  8 17:35:48 2023
Timers Off: Sat Apr  8 17:35:54 2023

Wall Time:        5.96 seconds

                                                       Time (seconds)
Module                                       User      System        Wall        Calls

--------------------------------------------------------------------------------------

**************************************************************************************



Host: deepmac.local


Host: deepmac.local



Host: deepmac.local
Host: deepmac.local
Host: deepmac.local



Timers On : Sat Apr  8 17:53:12 2023
Host: deepmac.local

Host: deepmac.local

Timers On : Sat Apr  8 17:53:05 2023
Timers Off: Sat Apr  8 17:53:20 2023

Wall Time:       14.67 seconds

                                                       Time (seconds)
Module                                       User      System        Wall        Calls

--------------------------------------------------------------------------------------

**************************************************************************************











Host: deepmac.local

Timers On : Sat Apr  8 18:22:51 2023
Timers Off: Sat Apr  8 18:23:06 2023

Wall Time:       15.05 seconds

                                                       Time (seconds)
Module                                       User      System        Wall        Calls

--------------------------------------------------------------------------------------

**************************************************************************************













Host: deepmac.local







Host: deepmac.local

Timers On : Sat Apr  8 18:29:48 2023
Timers Off: Sat Apr  8 18:30:17 2023

Wall Time:       29.29 seconds

                                                       Time (seconds)
Module                                       User      System        Wall        Calls

--------------------------------------------------------------------------------------

**************************************************************************************




Host: deepmac.local


Host: deepmac.local

Host: deepmac.local



Host: deepmac.local

Host: deepmac.local

Host: deepmac.local
Host: deepmac.local
Timers On : Sat Apr  8 18:31:37 2023
Host: deepmac.local

Timers On : Sat Apr  8 18:31:37 2023


Host: deepmac.local
Host: deepmac.local


Timers On : Sat Apr  8 18:31:49 2023
Timers On : Sat Apr  8 18:31:49 2023

Timers Off: Sat Apr  8 18:31:58 2023
Timers Off: Sat Apr  8 18:31:58 2023

Host: deepmac.local


Wall Time:        8.82 seconds




Wall Time:        8.82 seconds

Host: deepmac.local
Host: deepmac.local
Timers On : Sat Apr  8 18:31:49 2023
                                                       Time (seconds)

                                                       Time (seconds)
Timers Off: Sat Apr  8 18:31:58 2023
Host: deepmac.local
Module                                       User      System        Wall        Calls
Timers On : Sat Apr  8 18:31:49 2023

Wall Time:        8.82 seconds


--------------------------------------------------------------------------------------
Timers Off: Sat Apr  8 18:31:58 2023


Wall Time:        8.81 seconds

                                                       Time (seconds)
Timers On : Sat Apr  8 18:31:49 2023
Module                                       User      System        Wall        Calls
Timers Off: Sat Apr  8 18:31:58 2023
                                                       Time (seconds)

Wall Time:        8.82 seconds

Module                                       User      System        Wall        Calls

**************************************************************************************
                                                       Time (seconds)


--------------------------------------------------------------------------------------
Module                                       User      System        Wall        Calls

--------------------------------------------------------------------------------------




Host: deepmac.local

Timers On : Sat Apr  8 18:31:30 2023
Timers Off: Sat Apr  8 18:31:58 2023

Wall Time:       28.05 seconds

                                                       Time (seconds)
Module                                       User      System        Wall        Calls

--------------------------------------------------------------------------------------

**************************************************************************************




Host: deepmac.local






Host: deepmac.local
Host: deepmac.local
Timers On : Sat Apr  8 18:36:00 2023




Host: deepmac.local

Host: deepmac.local


Host: deepmac.local

Host: deepmac.local

Host: deepmac.local


Host: deepmac.local

Timers On : Sat Apr  8 18:35:54 2023
Timers Off: Sat Apr  8 18:36:25 2023

Wall Time:       31.02 seconds

                                                       Time (seconds)
Module                                       User      System        Wall        Calls

--------------------------------------------------------------------------------------

**************************************************************************************



Host: deepmac.local

Host: deepmac.local
Host: deepmac.local



Host: deepmac.local
Timers On : Sat Apr  8 18:36:41 2023


Timers Off: Sat Apr  8 18:36:49 2023
Host: deepmac.local
Timers On : Sat Apr  8 18:36:41 2023


Wall Time:        8.42 seconds

Timers On : Sat Apr  8 18:36:41 2023
Timers On : Sat Apr  8 18:36:41 2023
Timers On : Sat Apr  8 18:36:41 2023
Timers Off: Sat Apr  8 18:36:49 2023

Timers Off: Sat Apr  8 18:36:49 2023

Wall Time:        8.40 seconds

                                                       Time (seconds)
Host: deepmac.local


Wall Time:        8.35 seconds


Timers Off: Sat Apr  8 18:36:49 2023
Host: deepmac.local
                                                       Time (seconds)

Module                                       User      System        Wall        Calls


Host: deepmac.local
Host: deepmac.local


Timers On : Sat Apr  8 18:36:53 2023

Timers Off: Sat Apr  8 18:37:01 2023
Timers On : Sat Apr  8 18:36:53 2023
Host: deepmac.local

Wall Time:        8.57 seconds


Timers Off: Sat Apr  8 18:37:01 2023
                                                       Time (seconds)

Module                                       User      System        Wall        Calls
Host: deepmac.local
Timers On : Sat Apr  8 18:36:53 2023

Wall Time:        8.60 seconds

Timers Off: Sat Apr  8 18:37:01 2023

--------------------------------------------------------------------------------------

                                                       Time (seconds)

**************************************************************************************

Wall Time:        8.59 seconds

Module                                       User      System        Wall        Calls

Timers On : Sat Apr  8 18:36:53 2023

--------------------------------------------------------------------------------------
Host: deepmac.local
                                                       Time (seconds)

**************************************************************************************
Timers Off: Sat Apr  8 18:37:01 2023
Module                                       User      System        Wall        Calls



Wall Time:        8.56 seconds


--------------------------------------------------------------------------------------
Timers On : Sat Apr  8 18:36:53 2023
Host: deepmac.local

**************************************************************************************
Timers Off: Sat Apr  8 18:37:01 2023


Wall Time:        8.57 seconds


Host: deepmac.local
                                                       Time (seconds)
                                                       Time (seconds)

Module                                       User      System        Wall        Calls
Module                                       User      System        Wall        Calls
Timers On : Sat Apr  8 18:36:53 2023

--------------------------------------------------------------------------------------
Timers On : Sat Apr  8 18:36:53 2023
Timers Off: Sat Apr  8 18:37:01 2023

--------------------------------------------------------------------------------------

**************************************************************************************

Wall Time:        8.61 seconds

Timers Off: Sat Apr  8 18:37:01 2023

**************************************************************************************
                                                       Time (seconds)

Wall Time:        8.60 seconds

Module                                       User      System        Wall        Calls
                                                       Time (seconds)

--------------------------------------------------------------------------------------
Module                                       User      System        Wall        Calls

**************************************************************************************

--------------------------------------------------------------------------------------

**************************************************************************************

Host: deepmac.local

Timers On : Sat Apr  8 18:36:53 2023
Timers Off: Sat Apr  8 18:37:01 2023

Wall Time:        8.59 seconds



Host: deepmac.local

                                                       Time (seconds)

Host: deepmac.local
Module                                       User      System        Wall        Calls
Timers On : Sat Apr  8 18:36:53 2023

Host: deepmac.local
Timers On : Sat Apr  8 18:36:53 2023

--------------------------------------------------------------------------------------
Timers Off: Sat Apr  8 18:37:01 2023


Wall Time:        8.62 seconds


**************************************************************************************
Timers On : Sat Apr  8 18:36:53 2023
                                                       Time (seconds)
Timers Off: Sat Apr  8 18:37:01 2023
Module                                       User      System        Wall        Calls

Wall Time:        8.58 seconds

                                                       Time (seconds)
Module                                       User      System        Wall        Calls

--------------------------------------------------------------------------------------

**************************************************************************************
Timers Off: Sat Apr  8 18:37:01 2023

Host: deepmac.local

Timers On : Sat Apr  8 18:36:34 2023
Timers Off: Sat Apr  8 18:37:01 2023

Wall Time:       27.00 seconds

                                                       Time (seconds)
Module                                       User      System        Wall        Calls

--------------------------------------------------------------------------------------

**************************************************************************************





Host: deepmac.local
Host: deepmac.local


Host: deepmac.local


Host: deepmac.local
Timers On : Sat Apr  8 18:37:17 2023

Host: deepmac.local
Host: deepmac.local

Timers Off: Sat Apr  8 18:37:25 2023








Host: deepmac.local

Timers On : Sat Apr  8 18:37:09 2023
Timers Off: Sat Apr  8 18:37:37 2023

Wall Time:       28.16 seconds

                                                       Time (seconds)
Module                                       User      System        Wall        Calls

--------------------------------------------------------------------------------------

**************************************************************************************

















Host: deepmac.local

Timers On : Sat Apr  8 18:38:41 2023
Timers Off: Sat Apr  8 18:39:14 2023

Wall Time:       32.93 seconds

                                                       Time (seconds)
Module                                       User      System        Wall        Calls

--------------------------------------------------------------------------------------

**************************************************************************************





Host: deepmac.local


Host: deepmac.local

Host: deepmac.local
Host: deepmac.local
Host: deepmac.local
Host: deepmac.local
Timers On : Sat Apr  8 18:40:12 2023


Host: deepmac.local



Host: deepmac.local

Host: deepmac.local
Host: deepmac.local



Timers On : Sat Apr  8 18:40:23 2023

Timers Off: Sat Apr  8 18:40:32 2023
Timers On : Sat Apr  8 18:40:23 2023

Wall Time:        8.24 seconds

Timers On : Sat Apr  8 18:40:23 2023
Host: deepmac.local


Timers Off: Sat Apr  8 18:40:32 2023
                                                       Time (seconds)


Wall Time:        8.28 seconds

Host: deepmac.local
Timers Off: Sat Apr  8 18:40:32 2023
Timers On : Sat Apr  8 18:40:23 2023
Host: deepmac.local
Module                                       User      System        Wall        Calls


                                                       Time (seconds)


--------------------------------------------------------------------------------------
Timers Off: Sat Apr  8 18:40:32 2023
Host: deepmac.local


Host: deepmac.local

Timers On : Sat Apr  8 18:40:05 2023
Timers Off: Sat Apr  8 18:42:16 2023

Wall Time:      130.80 seconds

                                                       Time (seconds)
Module                                       User      System        Wall        Calls

--------------------------------------------------------------------------------------

**************************************************************************************



Host: deepmac.local

Host: deepmac.local


Host: deepmac.local
Host: deepmac.local
Host: deepmac.local


Timers On : Sat Apr  8 18:42:27 2023





Timers On : Sat Apr  8 18:42:27 2023
Host: deepmac.local
Host: deepmac.local
Host: deepmac.local

Timers Off: Sat Apr  8 18:42:35 2023
Timers On : Sat Apr  8 18:42:27 2023
Host: deepmac.local
Timers Off: Sat Apr  8 18:42:35 2023


Wall Time:        7.82 seconds

Timers On : Sat Apr  8 18:42:27 2023


                                                       Time (seconds)

Wall Time:        7.84 seconds

Timers Off: Sat Apr  8 18:42:35 2023
Timers On : Sat Apr  8 18:42:27 2023

Wall Time:        7.83 seconds

Timers On : Sat Apr  8 18:42:27 2023
Timers Off: Sat Apr  8 18:42:35 2023
Module                                       User      System        Wall        Calls
                                                       Time (seconds)

Wall Time:        7.84 seconds


Module                                       User      System        Wall        Calls
Timers On : Sat Apr  8 18:42:27 2023

--------------------------------------------------------------------------------------








Host: deepmac.local

Timers On : Sat Apr  8 18:42:21 2023
Timers Off: Sat Apr  8 18:42:51 2023

Wall Time:       30.74 seconds

                                                       Time (seconds)
Module                                       User      System        Wall        Calls

--------------------------------------------------------------------------------------

**************************************************************************************










Host: deepmac.local

Host: deepmac.local
Timers On : Sat Apr  8 18:44:05 2023


Timers Off: Sat Apr  8 18:44:14 2023
Timers On : Sat Apr  8 18:44:05 2023
Host: deepmac.local

Wall Time:        8.60 seconds

Timers Off: Sat Apr  8 18:44:14 2023

                                                       Time (seconds)

Wall Time:        8.60 seconds

Timers On : Sat Apr  8 18:44:05 2023
                                                       Time (seconds)
Module                                       User      System        Wall        Calls

Timers Off: Sat Apr  8 18:44:14 2023
Module                                       User      System        Wall        Calls

--------------------------------------------------------------------------------------

Host: deepmac.local

Host: deepmac.local

Wall Time:        8.61 seconds



                                                       Time (seconds)

--------------------------------------------------------------------------------------

**************************************************************************************
Host: deepmac.local

**************************************************************************************
Module                                       User      System        Wall        Calls


Timers On : Sat Apr  8 18:44:05 2023

--------------------------------------------------------------------------------------
Host: deepmac.local
Timers Off: Sat Apr  8 18:44:14 2023
Host: deepmac.local

Wall Time:        8.61 seconds


**************************************************************************************
                                                       Time (seconds)

Module                                       User      System        Wall        Calls

Timers On : Sat Apr  8 18:44:05 2023

--------------------------------------------------------------------------------------

Host: deepmac.local

Timers On : Sat Apr  8 18:43:47 2023
Timers Off: Sat Apr  8 18:44:18 2023

Wall Time:       30.76 seconds

                                                       Time (seconds)
Module                                       User      System        Wall        Calls

--------------------------------------------------------------------------------------

**************************************************************************************










Host: deepmac.local


Host: deepmac.local



Host: deepmac.local
Host: deepmac.local
Timers On : Sat Apr  8 21:51:52 2023


Timers On : Sat Apr  8 21:51:52 2023
Host: deepmac.local

Timers On : Sat Apr  8 21:51:52 2023
Host: deepmac.local
Timers Off: Sat Apr  8 21:51:57 2023
Timers On : Sat Apr  8 21:51:53 2023

Wall Time:        4.99 seconds

Timers Off: Sat Apr  8 21:51:57 2023

Timers Off: Sat Apr  8 21:51:57 2023


Host: deepmac.local

Timers On : Sat Apr  8 21:51:43 2023
Timers Off: Sat Apr  8 21:53:01 2023

Wall Time:       78.06 seconds

                                                       Time (seconds)
Module                                       User      System        Wall        Calls

--------------------------------------------------------------------------------------

**************************************************************************************

Host: deepmac.local

Timers On : Sun Apr  9 08:28:01 2023
Timers Off: Sun Apr  9 08:28:05 2023

Wall Time:        4.05 seconds

                                                       Time (seconds)
Module                                       User      System        Wall        Calls

--------------------------------------------------------------------------------------

**************************************************************************************

Host: deepmac.local

Timers On : Sun Apr  9 08:29:56 2023
Timers Off: Sun Apr  9 08:30:03 2023

Wall Time:        7.38 seconds


                                                       Time (seconds)
Host: deepmac.local
Module                                       User      System        Wall        Calls


Host: deepmac.local

--------------------------------------------------------------------------------------

Timers On : Sun Apr  9 08:29:56 2023

**************************************************************************************
Timers On : Sun Apr  9 08:29:56 2023
Timers Off: Sun Apr  9 08:30:03 2023

Wall Time:        7.37 seconds

Timers Off: Sun Apr  9 08:30:03 2023
                                                       Time (seconds)
Module                                       User      System        Wall        Calls

Wall Time:        7.38 seconds



--------------------------------------------------------------------------------------
                                                       Time (seconds)

Host: deepmac.local
Host: deepmac.local
Module                                       User      System        Wall        Calls



**************************************************************************************

Timers On : Sun Apr  9 08:29:56 2023



Host: deepmac.local

Host: deepmac.local
Host: deepmac.local



Timers On : Sun Apr  9 08:30:04 2023


Timers On : Sun Apr  9 08:30:04 2023
Timers Off: Sun Apr  9 08:30:12 2023

Timers Off: Sun Apr  9 08:30:12 2023
Host: deepmac.local
Host: deepmac.local
Timers On : Sun Apr  9 08:30:04 2023

Wall Time:        7.53 seconds

Timers Off: Sun Apr  9 08:30:12 2023
Host: deepmac.local



Wall Time:        7.53 seconds


Wall Time:        7.51 seconds

Timers On : Sun Apr  9 08:30:04 2023
                                                       Time (seconds)
Timers On : Sun Apr  9 08:30:04 2023



                                                       Time (seconds)
                                                       Time (seconds)
Timers Off: Sun Apr  9 08:30:12 2023

Host: deepmac.local

Timers On : Sun Apr  9 08:29:53 2023
Timers Off: Sun Apr  9 08:33:46 2023

Wall Time:      233.32 seconds

                                                       Time (seconds)
Module                                       User      System        Wall        Calls

--------------------------------------------------------------------------------------

**************************************************************************************

Host: deepmac.local

Timers On : Sun Apr  9 08:53:27 2023
Timers Off: Sun Apr  9 08:53:31 2023

Wall Time:        3.58 seconds

                                                       Time (seconds)
Module                                       User      System        Wall        Calls

--------------------------------------------------------------------------------------

**************************************************************************************





Host: deepmac.local
Host: deepmac.local

Host: deepmac.local

Host: deepmac.local

Timers On : Sun Apr  9 09:59:01 2023
Timers Off: Sun Apr  9 09:59:48 2023

Wall Time:       46.45 seconds

                                                       Time (seconds)
Module                                       User      System        Wall        Calls

--------------------------------------------------------------------------------------

**************************************************************************************

Host: deepmac.local

Timers On : Sun Apr  9 10:00:17 2023
Timers Off: Sun Apr  9 10:00:26 2023

Wall Time:        8.88 seconds

                                                       Time (seconds)
Module                                       User      System        Wall        Calls

--------------------------------------------------------------------------------------

**************************************************************************************


Host: deepmac.local
Host: deepmac.local


Timers On : Sun Apr  9 10:00:17 2023
Timers On : Sun Apr  9 10:00:17 2023
Timers Off: Sun Apr  9 10:00:26 2023
Timers Off: Sun Apr  9 10:00:26 2023

Wall Time:        8.92 seconds


Wall Time:        8.90 seconds

                                                       Time (seconds)
                                                       Time (seconds)
Module                                       User      System        Wall        Calls
Module                                       User      System        Wall        Calls

--------------------------------------------------------------------------------------

--------------------------------------------------------------------------------------


**************************************************************************************

**************************************************************************************
Host: deepmac.local


Host: deepmac.local

Timers On : Sun Apr  9 10:00:17 2023

Host: deepmac.local
Timers Off: Sun Apr  9 10:00:26 2023
Timers On : Sun Apr  9 10:00:17 2023


Wall Time:        8.92 seconds

Timers Off: Sun Apr  9 10:00:26 2023
Timers On : Sun Apr  9 10:00:17 2023
                                                       Time (seconds)

Wall Time:        8.91 seconds

Timers Off: Sun Apr  9 10:00:26 2023
Module                                       User      System        Wall        Calls
                                                       Time (seconds)

Wall Time:        8.91 seconds



--------------------------------------------------------------------------------------
                                                       Time (seconds)

**************************************************************************************
Host: deepmac.local
Module                                       User      System        Wall        Calls
Module                                       User      System        Wall        Calls


--------------------------------------------------------------------------------------

--------------------------------------------------------------------------------------
Timers On : Sun Apr  9 10:00:17 2023

**************************************************************************************

**************************************************************************************
Timers Off: Sun Apr  9 10:00:26 2023

Wall Time:        8.89 seconds

                                                       Time (seconds)
Module                                       User      System        Wall        Calls

--------------------------------------------------------------------------------------

**************************************************************************************



Host: deepmac.local
Host: deepmac.local
Host: deepmac.local



Timers On : Sun Apr  9 10:00:17 2023
Timers On : Sun Apr  9 10:00:17 2023
Timers On : Sun Apr  9 10:00:17 2023
Timers Off: Sun Apr  9 10:00:26 2023
Timers Off: Sun Apr  9 10:00:26 2023
Timers Off: Sun Apr  9 10:00:26 2023

Wall Time:        8.89 seconds


Wall Time:        8.87 seconds


Wall Time:        8.88 seconds

                                                       Time (seconds)
                                                       Time (seconds)
Module                                       User      System        Wall        Calls
                                                       Time (seconds)

--------------------------------------------------------------------------------------
Module                                       User      System        Wall        Calls

**************************************************************************************

--------------------------------------------------------------------------------------

**************************************************************************************

Host: deepmac.local


Timers On : Sun Apr  9 10:00:27 2023


Host: deepmac.local
Timers Off: Sun Apr  9 10:00:35 2023
Host: deepmac.local
Host: deepmac.local



Wall Time:        7.77 seconds

Host: deepmac.local
Timers On : Sun Apr  9 10:00:27 2023

Timers Off: Sun Apr  9 10:00:35 2023

                                                       Time (seconds)


Wall Time:        7.79 seconds

Module                                       User      System        Wall        Calls
Timers On : Sun Apr  9 10:00:27 2023
Timers On : Sun Apr  9 10:00:27 2023

--------------------------------------------------------------------------------------
Timers On : Sun Apr  9 10:00:27 2023
Timers Off: Sun Apr  9 10:00:35 2023
                                                       Time (seconds)
Timers Off: Sun Apr  9 10:00:35 2023

**************************************************************************************

Wall Time:        7.81 seconds

Timers Off: Sun Apr  9 10:00:35 2023

Wall Time:        7.81 seconds


Host: deepmac.local


Module                                       User      System        Wall        Calls

Host: deepmac.local

Timers On : Sun Apr  9 10:00:14 2023
Timers Off: Sun Apr  9 10:03:47 2023

Wall Time:      213.24 seconds

                                                       Time (seconds)
Module                                       User      System        Wall        Calls

--------------------------------------------------------------------------------------

**************************************************************************************

Host: deepmac.local

Timers On : Mon Apr 10 14:26:44 2023
Timers Off: Mon Apr 10 14:26:46 2023

Wall Time:        2.03 seconds

                                                       Time (seconds)
Module                                       User      System        Wall        Calls

--------------------------------------------------------------------------------------

**************************************************************************************

Host: deepmac.local

Timers On : Mon Apr 10 14:27:48 2023
Timers Off: Mon Apr 10 14:27:50 2023

Wall Time:        1.13 seconds

                                                       Time (seconds)
Module                                       User      System        Wall        Calls

--------------------------------------------------------------------------------------

**************************************************************************************

Host: deepmac.local

Timers On : Mon Apr 10 14:27:57 2023
Timers Off: Mon Apr 10 14:27:58 2023

Wall Time:        1.11 seconds

                                                       Time (seconds)
Module                                       User      System        Wall        Calls

--------------------------------------------------------------------------------------

**************************************************************************************

Host: deepmac.local

Timers On : Mon Apr 10 14:28:01 2023
Timers Off: Mon Apr 10 14:28:02 2023

Wall Time:        0.95 seconds

                                                       Time (seconds)
Module                                       User      System        Wall        Calls

--------------------------------------------------------------------------------------

**************************************************************************************

Host: deepmac.local

Timers On : Mon Apr 10 14:28:19 2023
Timers Off: Mon Apr 10 14:28:20 2023

Wall Time:        1.26 seconds

                                                       Time (seconds)
Module                                       User      System        Wall        Calls

--------------------------------------------------------------------------------------

**************************************************************************************

Host: deepmac.local

Timers On : Mon Apr 10 14:33:56 2023
Timers Off: Mon Apr 10 14:33:58 2023

Wall Time:        1.18 seconds

                                                       Time (seconds)
Module                                       User      System        Wall        Calls

--------------------------------------------------------------------------------------

**************************************************************************************

Host: deepmac.local

Timers On : Mon Apr 10 14:34:34 2023
Timers Off: Mon Apr 10 14:34:35 2023

Wall Time:        1.17 seconds

                                                       Time (seconds)
Module                                       User      System        Wall        Calls

--------------------------------------------------------------------------------------

**************************************************************************************

Host: deepmac.local

Timers On : Mon Apr 10 14:34:48 2023
Timers Off: Mon Apr 10 14:34:49 2023

Wall Time:        0.99 seconds

                                                       Time (seconds)
Module                                       User      System        Wall        Calls

--------------------------------------------------------------------------------------

**************************************************************************************

Host: deepmac.local

Timers On : Mon Apr 10 14:35:22 2023
Timers Off: Mon Apr 10 14:35:23 2023

Wall Time:        1.21 seconds

                                                       Time (seconds)
Module                                       User      System        Wall        Calls

--------------------------------------------------------------------------------------

**************************************************************************************

Host: deepmac.local

Timers On : Mon Apr 10 14:35:27 2023
Timers Off: Mon Apr 10 14:45:27 2023

Wall Time:      600.13 seconds

                                                       Time (seconds)
Module                                       User      System        Wall        Calls
DFH: sparsity prep                  :      8.017u      0.117s      4.895w      7 calls
Libint2ERI::Libint2ERI              :     15.400u      0.183s      9.435w     28 calls
JK: (A|Q)^-1                        :     35.333u      6.783s     21.734w      7 calls
JK: (A|mn)                          :    113.133u      0.300s     68.291w     28 calls
JK: (Q|mn)                          :    132.050u      0.333s     79.788w     28 calls
JK: (Q|mn) Write                    :      0.217u      4.517s      3.066w     28 calls
HF: Form core H                     :      6.133u      0.067s      3.738w      7 calls
HF: Form S/X                        :      0.800u      0.033s      0.525w      7 calls
HF: Guess                           :      1.167u      0.267s      1.005w      7 calls
SAD Guess                           :      1.133u      0.267s      0.979w      7 calls
HF: Form G                          :    597.600u     29.150s    377.976w     69 calls
JK: D                               :      0.167u      0.000s      0.074w     70 calls
JK: USO2AO                          :      0.000u      0.033s      0.031w     70 calls
JK: JK                              :    607.317u     29.600s    384.165w     70 calls
JK: (Q|mn) Read                     :      1.033u     23.850s     14.934w    357 calls
JK: J                               :     16.067u      0.067s      9.720w    357 calls
JK: J1                              :      7.683u      0.033s      4.621w    357 calls
JK: J2                              :      7.800u      0.033s      4.819w    357 calls
JK: K                               :    586.083u      2.300s    354.924w    357 calls
JK: K1                              :    390.483u      1.500s    236.335w    357 calls
JK: K2                              :    195.500u      0.700s    118.462w    357 calls
JK: AO2USO                          :      0.000u      0.000s      0.000w     70 calls
HF: Form F                          :      0.050u      0.000s      0.027w     69 calls
HF: Form D                          :      0.117u      0.000s      0.061w     69 calls
HF: DIIS                            :      4.167u      1.533s      5.196w     62 calls
HF: Form C                          :      6.050u      0.133s      3.786w     62 calls

--------------------------------------------------------------------------------------
DFH: sparsity prep                  :      8.017u      0.117s      4.895w      7 calls
| Libint2ERI::Libint2ERI            :      5.117u      0.083s      3.152w      7 calls
Libint2ERI::Libint2ERI              :     10.283u      0.100s      6.279w     14 calls
JK: (A|Q)^-1                        :     35.333u      6.783s     21.734w      7 calls
| Libint2ERI::Libint2ERI            :      0.000u      0.000s      0.005w      7 calls
JK: (A|mn)                          :    113.133u      0.300s     68.291w     28 calls
JK: (Q|mn)                          :    132.050u      0.333s     79.788w     28 calls
JK: (Q|mn) Write                    :      0.217u      4.517s      3.066w     28 calls
HF: Form core H                     :      6.133u      0.067s      3.738w      7 calls
HF: Form S/X                        :      0.800u      0.033s      0.525w      7 calls
HF: Guess                           :      1.167u      0.267s      1.005w      7 calls
| SAD Guess                         :      1.133u      0.267s      0.979w      7 calls
HF: Form G                          :    597.600u     29.150s    377.976w     70 calls
| JK: D                             :      0.167u      0.000s      0.074w     70 calls
| JK: USO2AO                        :      0.000u      0.033s      0.031w     70 calls
| JK: JK                            :    607.317u     29.600s    384.165w     70 calls
| | JK: (Q|mn) Read                 :      1.033u     23.850s     14.934w    357 calls
| | JK: J                           :     16.067u      0.067s      9.720w    357 calls
| | | JK: J1                        :      7.683u      0.033s      4.621w    357 calls
| | | JK: J2                        :      7.800u      0.033s      4.819w    357 calls
| | JK: K                           :    586.083u      2.300s    354.924w    357 calls
| | | JK: K1                        :    390.483u      1.500s    236.335w    357 calls
| | | JK: K2                        :    195.500u      0.700s    118.462w    357 calls
| JK: AO2USO                        :      0.000u      0.000s      0.000w     70 calls
HF: Form F                          :      0.050u      0.000s      0.027w     69 calls
HF: Form D                          :      0.117u      0.000s      0.061w     69 calls
HF: DIIS                            :      4.167u      1.533s      5.196w     62 calls
HF: Form C                          :      6.050u      0.133s      3.786w     62 calls

**************************************************************************************

Host: deepmac.local

Timers On : Mon Apr 10 16:12:40 2023
Timers Off: Mon Apr 10 16:12:41 2023

Wall Time:        1.69 seconds

                                                       Time (seconds)
Module                                       User      System        Wall        Calls

--------------------------------------------------------------------------------------

**************************************************************************************
